Compound,T crit,n_density_data,T range (K),homo,hetero,n_pressure_data,T range (K).1,homo.1,hetero.1,smiles
1-propanol,536.8,91,153-483,6.06,1.15,226,273-537,3.76,2.54,CCCO
1-butanol,563.1,49,186-423,2.07,0.22,188,296-563,2.85,1.52,CCCCO
1-pentanol,588.1,34,253-490,0.61,0.46,55,287-573,1.26,2.53,CCCCCO
1-hexanol,611.3,18,253-413,2.38,0.58,52,310-603,2.66,2.95,CCCCCCO
1-heptanol,632.3,25,253-413,3.52,0.71,80,316-603,2.7,3.15,CCCCCCCO
1-octanol,652.3,36,263-490,4.6,0.85,73,293-549,3.48,3.25,CCCCCCCCO
1-nonanol,670.9,11,273-328,5.31,1.19,52,365-613,2.9,1.53,CCCCCCCCCO
1-decanol,688,29,283-553,6.11,1.21,41,336-528,4.21,2,CCCCCCCCCCO
1-undecanol,703.9,28,293-413,6.75,0.8,13,293-407,6.88,1.05,CCCCCCCCCCCO
1-dodecanol,718.7,31,298-573,7.34,1.28,70,303-619,8.16,3.01,CCCCCCCCCCCCO
1-tridecanol,732.4,5,304-333,7.44,1.18,88,335-730,6.78,2.84,CCCCCCCCCCCCCO
1-tetradecanol,747,33,312-573,7.87,1.18,140,313-745,8.63,2.64,CCCCCCCCCCCCCCO
1-pentadecanol,757.3,1,333-333,8.35,0.79,34,343-755,9.36,2.72,CCCCCCCCCCCCCCCO
1-hexadecanol,768.6,44,323-573,8.67,1.54,49,363-569,12.33,1.39,CCCCCCCCCCCCCCCCO
1-octadecanol,789.3,61,298-573,8.89,1.39,51,433-574,14.11,3.09,CCCCCCCCCCCCCCCCCCO
1-eicosanol,809,3,348-368,9.31,0.7,5,339-358,31.02,8.46,CCCCCCCCCCCCCCCCCCCCO
1-propylamine,496.9,11,213-413,6.43,0.86,29,237-351,2.45,2.21,CCCN
1-butylamine,531.9,8,293-335,1.72,0.73,26,259-373,2.22,2.07,CCCCN
1-pentylamine,555,4,293-298,0.87,1.11,22,279-401,1.97,3.44,CCCCCN
1-hexylamine,584,16,253-493,2.29,1.12,38,293-431,3.57,2.35,CCCCCCN
1-aminoheptane,607,12,273-373,3.88,1.24,28,308-457,1.85,2.03,CCCCCCCN
1-octylamine,627,2,293-298,4.68,1.68,42,308-481,1.96,2.3,CCCCCCCCN
1-nonylamine,648,2,293-298,5.42,1.76,39,325-504,3.03,2.69,CCCCCCCCCN
1-decylamine,663,4,293-298,5.99,1.87,42,329-523,2.58,2.19,CCCCCCCCCCN
1-undecaneamine,682,3,293-298,6.48,1.92,40,342-547,4.11,2.84,CCCCCCCCCCCN
1-dodecylamine,696,14,313-573,7.05,1.41,55,355-564,3.97,3.61,CCCCCCCCCCCCN
1-tetradecylamine,722,3,293-298,7.54,2.05,43,382-597,2.75,2.21,CCCCCCCCCCCCCCN
propanal,504.4,3,293-298,0.48,8.71,40,235-342,1.37,2.06,CCC=O
butanal,537.2,12,273-348,3,6.55,25,255-371,3.81,0.99,CCCC=O
pentanal,566.1,11,289-363,5.14,5.22,25,277-400,9.2,4.69,CCCCC=O
hexanal,591,4,288-298,6.32,4.07,30,296-427,7.54,3.99,CCCCCC=O
heptanal,616.8,12,273-393,7.34,3.42,28,298-453,7.11,4.96,CCCCCCC=O
octanal,638.9,6,289-298,7.87,2.63,34,298-475,4.46,3.83,CCCCCCCC=O
nonanal,658,15,289-403,8.75,2.65,35,314-497,3.04,2.73,CCCCCCCCC=O
decanal,674.2,5,288-298,8.41,1.34,28,349-518,2.31,1.46,CCCCCCCCCC=O
undecanal,692,3,293-298,8.81,1.1,30,338-537,4.78,3.26,CCCCCCCCCCC=O
dodecanal,708,2,293-298,9.02,0.76,24,373-555,6.84,4.09,CCCCCCCCCCCC=O
tridecanal,724,2,293-298,9.22,0.5,29,407-572,6.46,3.98,CCCCCCCCCCCCC=O
2-methylpropanal,507,3,293-298,3.76,0.17,15,293-337,13.13,3.37,CC(C)C=O
2-methylbutanal,543.2,15,293-393,0.82,0.3,18,268-383,11.93,7.16,CCC(C)C=O
3-methylbutanal,543.2,10,273-366,0.14,0.63,16,311-368,10.77,4.27,CC(C)CC=O
2-methyloctanal,647,1,293-293,6.07,1,6,329-365,32.2,28.83,CCCCCCC(C)C=O
2-butanone,535.5,11,223-303,0.46,13.63,87,191-533,2.42,4.92,CCC(C)=O
2-pentanone,561.1,35,233-373,2.35,11.25,99,204-558,6.37,3.5,CCCC(C)=O
3-pentanone,561,17,273-343,3.13,11.96,80,283-555,4.89,3.03,CCC(=O)CC
2-hexanone,587.6,9,283-323,4.21,9.56,36,298-428,15.99,11.03,CCCCC(C)=O
3-hexanone,582.8,9,293-360,4.67,10.02,93,293-422,1.62,2.57,CCCC(=O)CC
2-heptanone,611.4,18,253-353,5.53,8.33,119,274-452,18.06,14.12,CCCCCC(C)=O
3-heptanone,606.6,15,288-359,5.93,8.72,16,323-421,6.62,3.66,CCCCC(=O)CC
4-heptanone,602,14,253-393,5.51,8.34,40,309-443,7.23,10.37,CCCC(=O)CCC
2-octanone,632.7,21,253-433,6.42,7.35,23,298-472,16.13,13.23,CCCCCCC(C)=O
3-octanone,627.7,27,284-359,6.79,7.61,26,293-443,11.58,12,CCCCCC(=O)CC
4-octanone,623.8,14,293-323,6.32,7.13,23,315-443,16.69,17.16,CCCCC(=O)CCC
2-nonanone,652.5,21,273-437,7.11,6.46,37,336-496,16.19,14.75,CCCCCCCC(C)=O
3-nonanone,648.1,23,273-360,7.31,6.6,19,341-464,3.68,3.73,CCCCCCC(=O)CC
4-nonanone,643.7,8,277-323,7.24,6.51,9,341-460,15.88,16.32,CCCCCC(=O)CCC
5-nonanone,640,15,283-360,7.11,6.42,39,301-485,4.96,5.5,CCCCC(=O)CCCC
6-undecanone,678.5,18,293-361,8.06,5.08,48,298-532,9.43,8.35,CCCCCC(=O)CCCCC
3-methyl-2-butanone,553.4,5,273-298,2.41,6.82,67,291-550,6.81,2.6,CC(=O)C(C)C
"3,3-dimethyl-2-butanone",564,8,273-353,6.35,15.7,48,284-405,24.45,2.98,CC(=O)C(C)(C)C
3-methyl-2-pentanone,573,4,293-298,0.8,5.94,43,286-430,5.3,2.32,CCC(C)C(C)=O
4-methyl-2-pentanone,574.6,21,283-373,0.55,4.72,37,283-416,12.08,5.21,CC(=O)CC(C)C
2-methyl-3-pentanone,567,5,291-298,0.72,5.97,46,210-525,15.44,7.99,CCC(=O)C(C)C
"2,4-dimethyl-3-pentanone",576,13,283-372,1.81,0.32,30,291-423,38.05,24.66,CC(C)C(=O)C(C)C
6-methyl-3-heptanone,617,5,293-293,4.27,4.64,5,325-436,7.32,8.54,CCC(=O)CCC(C)C
"2,6-dimethyl-4-heptanone",615,6,293-360,0.65,1.16,81,245-615,36.86,23.17,CC(C)CC(=O)CC(C)C
methyl-ethylether,437.8,8,273-412,4.88,25.17,45,182-438,3.86,5.21,CCOC
diethylether,466.7,28,273-443,0.63,3.4,58,199-467,5.15,3.05,CCOCC
methyl-n-propylether,476.2,5,273-308,5.6,18.58,65,201-333,7.1,11.24,CCCOC
ethyl-n-propylether,500.2,4,273-298,1.82,2.51,42,247-360,9.86,2.14,CCCOCC
di-n-propylether,530.6,9,288-333,3.5,1.81,54,200-530,6.36,3.35,CCCOCCC
methyl-isopropylether,464.5,4,273-298,0.33,27.62,4,227-306,12.94,7.41,COC(C)C
ethyl-isopropylether,489,8,273-308,3.34,3.24,2,325-328,7.15,3.23,CCOC(C)C
methyl-n-butylether,512.7,13,273-315,6.72,16.16,12,256-344,6.15,11.86,CCCCOC
ethyl-n-butylether,531,9,273-331,3.78,2.09,23,204-511,12.25,3.62,CCCCOCC
isopropyl-n-butylether,549,4,288-308,0.82,3.44,3,380-382,1.63,4.01,CCCCOC(C)C
di-n-butylether,584.1,13,273-323,5.48,0.78,25,337-413,9.11,3.29,CCCCOCCCC
diisobutylether,562,3,288-308,1.89,8.46,7,320-396,22.49,9.69,CC(C)COCC(C)C
methyl-tert-butylether,497.1,68,273-338,2.84,5.14,250,273-496,1.6,3,COC(C)(C)C
ethyl-tert-butylether,509.4,15,288-308,6.18,8.63,274,180-450,5.09,1.07,CCOC(C)(C)C
isobutyl-tert-butylether,558.3,1,298-298,6.11,1.64,8,273-308,36.42,24.77,CC(C)COC(C)(C)C
di-n-pentylether,622,10,273-361,6.82,0.36,8,343-460,8.91,6.24,CCCCCOCCCCC
methyl-tert-pentylether,534,17,288-396,1.32,3.45,57,294-390,2.41,2.16,CCC(C)(C)OC
ethyl-tert-pentylether,546,9,288-388,2.05,8.67,20,298-412,1.3,2.19,CCOC(C)(C)CC
ethyl-hexylether,583,11,288-361,6.11,1.5,2,315-415,23.22,15.84,CCCCCCOCC
ethylformate,508.4,43,273-473,2.07,4.85,42,213-508,1.65,4.68,CCOC=O
n-propylformate,538,25,273-503,2.27,3.96,51,262-538,9.26,4.97,CCCC(=O)[O-]
n-butylformate,559,12,273-373,3.57,2.53,43,247-403,8.27,3.67,CCCCC(=O)[O-]
isobutylformate,551.4,19,273-370,1.65,3.4,63,240-551,6.62,2.91,CC(C)CC(=O)[O-]
sec-butylformate,546,12,283-373,1.31,3.12,50,239-389,18.49,13.72,CCC(C)C(=O)[O-]
n-pentylformate,576,17,273-393,4.7,1.51,28,230-490,13.59,8.31,CCCCCC(=O)[O-]
n-heptylformate,628,9,273-303,6.61,0.65,2,350-356,6.19,6.59,CCCCCCCC(=O)[O-]
n-octylformate,645,8,273-303,7.03,0.15,2,346-361,19.13,20.53,CCCCCCCCC(=O)[O-]
ethylacetate,523.3,26,273-493,2.91,6.83,64,230-523,8.78,8.47,CCOC(C)=O
n-propylacetate,549.7,36,273-513,0.42,5.78,54,263-549,13.2,7.77,CCCCC(=O)[O-]
isopropylacetate,532,10,293-335,5.52,0.27,73,235-385,18.88,10.99,CC(C)CC(=O)[O-]
n-butylacetate,575.4,32,273-393,2.24,4.64,71,326-410,15.16,10.88,CCCCCC(=O)[O-]
isobutylacetate,560.8,17,273-373,2,0.1,47,288-523,3.98,4.11,CC(C)CCC(=O)[O-]
sec-butylacetate,561,14,286-361,2.27,0.35,27,298-524,17.62,13.78,CCC(C)CC(=O)[O-]
tert-butylacetate,545,7,283-333,9.05,10.08,26,293-425,38.46,23.87,CC(C)(C)CC(=O)[O-]
n-pentylacetate,599.9,32,273-418,3.65,3.86,29,331-489,8.47,5.77,CCCCCCC(=O)[O-]
isopentylacetate,586.1,23,278-408,0.38,0.09,18,293-415,4.1,7.42,CC(C)CCCC(=O)[O-]
n-hexylacetate,618,25,273-368,4.67,3.18,9,304-381,17.18,18.25,CCCCCCCC(=O)[O-]
2-ethylhexylacetate,642.4,11,293-498,4.61,0.25,26,361-517,16.9,12.78,CCCCC(CC)CCC(=O)[O-]
n-heptylacetate,637,14,273-303,5.34,2.45,26,349-467,16.37,17.01,CCCCCCCCC(=O)[O-]
n-octylacetate,652,8,293-368,6.08,2.19,11,335-485,11.59,14.67,CCCCCCCCCC(=O)[O-]
n-decylacetate,678,6,293-368,7.03,1.56,21,349-518,7.17,7.8,CCCCCCCCCCCC(=O)[O-]
ethylpropionate,546,26,273-513,0.23,5.52,45,245-546,6.15,5.23,CCOC(=O)CC
propylpropionate,568.6,23,273-395,2.3,4.72,35,259-420,2.87,1.41,CCCOC(=O)CC
butylpropionate,594.6,15,273-363,3.62,3.8,58,306-431,2.48,2.38,CCCCOC(=O)CC
ethyl-n-butyrate,571,36,273-393,2.02,4.44,41,255-423,7.85,9.75,CCCC(=O)OCC
n-propyl-n-butyrate,593.7,23,273-413,3.19,3.42,86,272-445,6.51,8.35,CCCOC(=O)CCC
n-butyl-n-butyrate,616,16,273-359,4.26,2.74,21,250-610,11.19,11.12,CCCCOC(=O)CCC
methyl-isobutyrate,540.7,32,273-513,4.08,1.21,41,260-541,3.16,5.6,COC(=O)C(C)C
ethyl-isobutyrate,553.1,3,273-293,2.57,0.48,28,249-553,21.54,14.32,CCOC(=O)C(C)C